VARIABLES="x" "p" "r" "u"
ZONE  T="Exact", I=101, J=1, K=1, DATAPACKING=BLOCK, VARLOCATION=([1]=NODAL,[2-4]=CELLCENTERED)
0 0.010 0.020 0.030 0.040 0.050 0.060 0.070 0.080 0.090 0.100 0.110 0.120 0.130 0.140 0.150 0.160 0.170 0.180 0.190 0.200 0.210 0.220 0.230 0.240 0.250 0.260 0.270 0.280 0.290 0.300 0.310 0.320 0.330 0.340 0.350 0.360 0.370 0.380 0.390 0.400 0.410 0.420 0.430 0.440 0.450 0.460 0.470 0.480 0.490 0.500 0.510 0.520 0.530 0.540 0.550 0.560 0.570 0.580 0.590 0.600 0.610 0.620 0.630 0.640 0.650 0.660 0.670 0.680 0.690 0.700 0.710 0.720 0.730 0.740 0.750 0.760 0.770 0.780 0.790 0.800 0.810 0.820 0.830 0.840 0.850 0.860 0.870 0.880 0.890 0.900 0.910 0.920 0.930 0.940 0.950 0.960 0.970 0.980 0.990 1
1 1 1 1 1 1 1 1 1 1 1 1 1 1 1 1 1 1 1 1 1 1 1 1 1 1 0.989322 0.944071 0.898132 0.854123 0.811975 0.771622 0.733001 0.696049 0.660705 0.62691 0.594608 0.563744 0.534263 0.506113 0.479245 0.453608 0.429156 0.405843 0.383624 0.362455 0.342296 0.323106 0.306293 0.30313 0.30313 0.30313 0.30313 0.30313 0.30313 0.30313 0.30313 0.30313 0.30313 0.30313 0.30313 0.30313 0.30313 0.30313 0.30313 0.30313 0.30313 0.30313 0.30313 0.30313 0.30313 0.30313 0.30313 0.30313 0.30313 0.30313 0.30313 0.30313 0.30313 0.30313 0.30313 0.30313 0.30313 0.30313 0.30313 0.1 0.1 0.1 0.1 0.1 0.1 0.1 0.1 0.1 0.1 0.1 0.1 0.1 0.1 0.1
1 1 1 1 1 1 1 1 1 1 1 1 1 1 1 1 1 1 1 1 1 1 1 1 1 1 0.99235 0.959704 0.92611 0.893464 0.861744 0.830932 0.801008 0.771952 0.743745 0.716369 0.689805 0.664035 0.639041 0.614806 0.591311 0.56854 0.546477 0.525103 0.504404 0.484362 0.464963 0.44619 0.429486 0.426319 0.426319 0.426319 0.426319 0.426319 0.426319 0.426319 0.426319 0.426319 0.426319 0.426319 0.426319 0.426319 0.426319 0.426319 0.426319 0.426319 0.426319 0.426319 0.362021 0.265574 0.265574 0.265574 0.265574 0.265574 0.265574 0.265574 0.265574 0.265574 0.265574 0.265574 0.265574 0.265574 0.265574 0.265574 0.265574 0.125 0.125 0.125 0.125 0.125 0.125 0.125 0.125 0.125 0.125 0.125 0.125 0.125 0.125 0.125
0 0 0 0 0 0 0 0 0 0 0 0 0 0 0 0 0 0 0 0 0 0 0 0 0 0 0.00910798 0.0485133 0.09018 0.131847 0.173513 0.21518 0.256847 0.298513 0.34018 0.381847 0.423513 0.46518 0.506847 0.548513 0.59018 0.631847 0.673513 0.71518 0.756847 0.798513 0.84018 0.881847 0.920089 0.927453 0.927453 0.927453 0.927453 0.927453 0.927453 0.927453 0.927453 0.927453 0.927453 0.927453 0.927453 0.927453 0.927453 0.927453 0.927453 0.927453 0.927453 0.927453 0.927453 0.927453 0.927453 0.927453 0.927453 0.927453 0.927453 0.927453 0.927453 0.927453 0.927453 0.927453 0.927453 0.927453 0.927453 0.927453 0.927453 0 0 0 0 0 0 0 0 0 0 0 0 0 0 0
